Program Version,EnergyPlus, Version 9.5.0-de239b2e5f, YMD=2025.08.19 05:49
1,5,Environment Title[],Latitude[deg],Longitude[deg],Time Zone[],Elevation[m]
2,8,Day of Simulation[],Month[],Day of Month[],DST Indicator[1=yes 0=no],Hour[],StartMinute[],EndMinute[],DayType
3,5,Cumulative Day of Simulation[],Month[],Day of Month[],DST Indicator[1=yes 0=no],DayType  ! When Daily Meters Requested
4,2,Cumulative Days of Simulation[],Month[]  ! When Monthly Meters Requested
5,1,Cumulative Days of Simulation[] ! When Run Period Meters Requested
6,1,Calendar Year of Simulation[] ! When Annual Meters Requested
652,1,Electricity:HVAC [J] !TimeStep
756,1,Heating:Electricity [J] !TimeStep
717,1,Cooling:Electricity [J] !TimeStep
12,1,Electricity:Facility [J] !TimeStep
End of Data Dictionary
1,COLLEGE STATION EASTERWOOD FL ANN HTG 99.6% CONDNS DB HVAC Sizing Pass 1,  30.63, -96.33,  -6.00,  96.00
2,1, 1,21, 0, 1, 0.00, 1.00,WinterDesignDay
12,190022.74033697399
652,133022.74033697399
717,0.0
756,112256.89889370556
2,1, 1,21, 0, 1, 1.00, 2.00,WinterDesignDay
12,190022.74033697399
652,133022.74033697399
717,0.0
756,112256.89889370556
2,1, 1,21, 0, 1, 2.00, 3.00,WinterDesignDay
12,190022.74033697399
652,133022.74033697399
717,0.0
756,112256.89889370556
2,1, 1,21, 0, 1, 3.00, 4.00,WinterDesignDay
12,190022.74033697399
652,133022.74033697399
717,0.0
756,112256.89889370556
2,1, 1,21, 0, 1, 4.00, 5.00,WinterDesignDay
12,190022.74033697399
652,133022.74033697399
717,0.0
756,112256.89889370556
2,1, 1,21, 0, 1, 5.00, 6.00,WinterDesignDay
12,190022.74033697399
652,133022.74033697399
717,0.0
756,112256.89889370556
2,1, 1,21, 0, 1, 6.00, 7.00,WinterDesignDay
12,190022.74033697399
652,133022.74033697399
717,0.0
756,112256.89889370556
2,1, 1,21, 0, 1, 7.00, 8.00,WinterDesignDay
12,190022.74033697399
652,133022.74033697399
717,0.0
756,112256.89889370556
2,1, 1,21, 0, 1, 8.00, 9.00,WinterDesignDay
12,190022.74033697399
652,133022.74033697399
717,0.0
756,112256.89889370556
2,1, 1,21, 0, 1, 9.00,10.00,WinterDesignDay
12,190022.74033697399
652,133022.74033697399
717,0.0
756,112256.89889370556
2,1, 1,21, 0, 1,10.00,11.00,WinterDesignDay
12,190022.74033697399
652,133022.74033697399
717,0.0
756,112256.89889370556
2,1, 1,21, 0, 1,11.00,12.00,WinterDesignDay
12,190022.74033697399
652,133022.74033697399
717,0.0
756,112256.89889370556
2,1, 1,21, 0, 1,12.00,13.00,WinterDesignDay
12,190022.74033697399
652,133022.74033697399
717,0.0
756,112256.89889370556
2,1, 1,21, 0, 1,13.00,14.00,WinterDesignDay
12,190022.74033697399
652,133022.74033697399
717,0.0
756,112256.89889370556
2,1, 1,21, 0, 1,14.00,15.00,WinterDesignDay
12,190022.74033697399
652,133022.74033697399
717,0.0
756,112256.89889370556
2,1, 1,21, 0, 1,15.00,16.00,WinterDesignDay
12,190022.74033697399
652,133022.74033697399
717,0.0
756,112256.89889370556
2,1, 1,21, 0, 1,16.00,17.00,WinterDesignDay
12,190022.74033697399
652,133022.74033697399
717,0.0
756,112256.89889370556
2,1, 1,21, 0, 1,17.00,18.00,WinterDesignDay
12,190022.74033697399
652,133022.74033697399
717,0.0
756,112256.89889370556
2,1, 1,21, 0, 1,18.00,19.00,WinterDesignDay
12,190022.74033697399
652,133022.74033697399
717,0.0
756,112256.89889370556
2,1, 1,21, 0, 1,19.00,20.00,WinterDesignDay
12,190022.74033697399
652,133022.74033697399
717,0.0
756,112256.89889370556
2,1, 1,21, 0, 1,20.00,21.00,WinterDesignDay
12,190022.74033697399
652,133022.74033697399
717,0.0
756,112256.89889370556
2,1, 1,21, 0, 1,21.00,22.00,WinterDesignDay
12,190022.74033697399
652,133022.74033697399
717,0.0
756,112256.89889370556
2,1, 1,21, 0, 1,22.00,23.00,WinterDesignDay
12,190022.74033697399
652,133022.74033697399
717,0.0
756,112256.89889370556
2,1, 1,21, 0, 1,23.00,24.00,WinterDesignDay
12,190022.74033697399
652,133022.74033697399
717,0.0
756,112256.89889370556
2,1, 1,21, 0, 1,24.00,25.00,WinterDesignDay
12,190022.74033697399
652,133022.74033697399
717,0.0
756,112256.89889370556
2,1, 1,21, 0, 1,25.00,26.00,WinterDesignDay
12,190022.74033697399
652,133022.74033697399
717,0.0
756,112256.89889370556
2,1, 1,21, 0, 1,26.00,27.00,WinterDesignDay
12,190022.74033697399
652,133022.74033697399
717,0.0
756,112256.89889370556
2,1, 1,21, 0, 1,27.00,28.00,WinterDesignDay
12,190022.74033697399
652,133022.74033697399
717,0.0
756,112256.89889370556
2,1, 1,21, 0, 1,28.00,29.00,WinterDesignDay
12,190022.74033697399
652,133022.74033697399
717,0.0
756,112256.89889370556
2,1, 1,21, 0, 1,29.00,30.00,WinterDesignDay
12,190022.74033697399
652,133022.74033697399
717,0.0
756,112256.89889370556
2,1, 1,21, 0, 1,30.00,31.00,WinterDesignDay
12,190022.74033697399
652,133022.74033697399
717,0.0
756,112256.89889370556
2,1, 1,21, 0, 1,31.00,32.00,WinterDesignDay
12,190022.74033697399
652,133022.74033697399
717,0.0
756,112256.89889370556
2,1, 1,21, 0, 1,32.00,33.00,WinterDesignDay
12,190022.74033697399
652,133022.74033697399
717,0.0
756,112256.89889370556
2,1, 1,21, 0, 1,33.00,34.00,WinterDesignDay
12,190022.74033697399
652,133022.74033697399
717,0.0
756,112256.89889370556
2,1, 1,21, 0, 1,34.00,35.00,WinterDesignDay
12,190022.74033697399
652,133022.74033697399
717,0.0
756,112256.89889370556
2,1, 1,21, 0, 1,35.00,36.00,WinterDesignDay
12,190022.74033697399
652,133022.74033697399
717,0.0
756,112256.89889370556
2,1, 1,21, 0, 1,36.00,37.00,WinterDesignDay
12,190022.74033697399
652,133022.74033697399
717,0.0
756,112256.89889370556
2,1, 1,21, 0, 1,37.00,38.00,WinterDesignDay
12,190022.74033697399
652,133022.74033697399
717,0.0
756,112256.89889370556
2,1, 1,21, 0, 1,38.00,39.00,WinterDesignDay
12,190022.74033697399
652,133022.74033697399
717,0.0
756,112256.89889370556
2,1, 1,21, 0, 1,39.00,40.00,WinterDesignDay
12,190022.74033697399
652,133022.74033697399
717,0.0
756,112256.89889370556
2,1, 1,21, 0, 1,40.00,41.00,WinterDesignDay
12,190022.74033697399
652,133022.74033697399
717,0.0
756,112256.89889370556
2,1, 1,21, 0, 1,41.00,42.00,WinterDesignDay
12,190022.74033697399
652,133022.74033697399
717,0.0
756,112256.89889370556
2,1, 1,21, 0, 1,42.00,43.00,WinterDesignDay
12,190022.74033697399
652,133022.74033697399
717,0.0
756,112256.89889370556
2,1, 1,21, 0, 1,43.00,44.00,WinterDesignDay
12,190022.74033697399
652,133022.74033697399
717,0.0
756,112256.89889370556
2,1, 1,21, 0, 1,44.00,45.00,WinterDesignDay
12,190022.74033697399
652,133022.74033697399
717,0.0
756,112256.89889370556
2,1, 1,21, 0, 1,45.00,46.00,WinterDesignDay
12,190022.74033697399
652,133022.74033697399
717,0.0
756,112256.89889370556
2,1, 1,21, 0, 1,46.00,47.00,WinterDesignDay
12,190022.74033697399
652,133022.74033697399
717,0.0
756,112256.89889370556
2,1, 1,21, 0, 1,47.00,48.00,WinterDesignDay
12,190022.74033697399
652,133022.74033697399
717,0.0
756,112256.89889370556
2,1, 1,21, 0, 1,48.00,49.00,WinterDesignDay
12,190022.74033697399
652,133022.74033697399
717,0.0
756,112256.89889370556
2,1, 1,21, 0, 1,49.00,50.00,WinterDesignDay
12,190022.74033697399
652,133022.74033697399
717,0.0
756,112256.89889370556
2,1, 1,21, 0, 1,50.00,51.00,WinterDesignDay
12,190022.74033697399
652,133022.74033697399
717,0.0
756,112256.89889370556
2,1, 1,21, 0, 1,51.00,52.00,WinterDesignDay
12,190022.74033697399
652,133022.74033697399
717,0.0
756,112256.89889370556
2,1, 1,21, 0, 1,52.00,53.00,WinterDesignDay
12,190022.74033697399
652,133022.74033697399
717,0.0
756,112256.89889370556
2,1, 1,21, 0, 1,53.00,54.00,WinterDesignDay
12,190022.74033697399
652,133022.74033697399
717,0.0
756,112256.89889370556
2,1, 1,21, 0, 1,54.00,55.00,WinterDesignDay
12,190022.74033697399
652,133022.74033697399
717,0.0
756,112256.89889370556
2,1, 1,21, 0, 1,55.00,56.00,WinterDesignDay
12,190022.74033697399
652,133022.74033697399
717,0.0
756,112256.89889370556
2,1, 1,21, 0, 1,56.00,57.00,WinterDesignDay
12,190022.74033697399
652,133022.74033697399
717,0.0
756,112256.89889370556
2,1, 1,21, 0, 1,57.00,58.00,WinterDesignDay
12,190022.74033697399
652,133022.74033697399
717,0.0
756,112256.89889370556
2,1, 1,21, 0, 1,58.00,59.00,WinterDesignDay
12,190022.74033697399
652,133022.74033697399
717,0.0
756,112256.89889370556
2,1, 1,21, 0, 1,59.00,60.00,WinterDesignDay
12,190022.74033697399
652,133022.74033697399
717,0.0
756,112256.89889370556
2,1, 1,21, 0, 2, 0.00, 1.00,WinterDesignDay
12,190022.74033697399
652,133022.74033697399
717,0.0
756,112256.89889370556
2,1, 1,21, 0, 2, 1.00, 2.00,WinterDesignDay
12,190022.74033697399
652,133022.74033697399
717,0.0
756,112256.89889370556
2,1, 1,21, 0, 2, 2.00, 3.00,WinterDesignDay
12,190022.74033697399
652,133022.74033697399
717,0.0
756,112256.89889370556
2,1, 1,21, 0, 2, 3.00, 4.00,WinterDesignDay
12,190022.74033697399
652,133022.74033697399
717,0.0
756,112256.89889370556
2,1, 1,21, 0, 2, 4.00, 5.00,WinterDesignDay
12,190022.74033697399
652,133022.74033697399
717,0.0
756,112256.89889370556
2,1, 1,21, 0, 2, 5.00, 6.00,WinterDesignDay
12,190022.74033697399
652,133022.74033697399
717,0.0
756,112256.89889370556
2,1, 1,21, 0, 2, 6.00, 7.00,WinterDesignDay
12,190022.74033697399
652,133022.74033697399
717,0.0
756,112256.89889370556
2,1, 1,21, 0, 2, 7.00, 8.00,WinterDesignDay
12,190022.74033697399
652,133022.74033697399
717,0.0
756,112256.89889370556
2,1, 1,21, 0, 2, 8.00, 9.00,WinterDesignDay
12,190022.74033697399
652,133022.74033697399
717,0.0
756,112256.89889370556
2,1, 1,21, 0, 2, 9.00,10.00,WinterDesignDay
12,190022.74033697399
652,133022.74033697399
717,0.0
756,112256.89889370556
2,1, 1,21, 0, 2,10.00,11.00,WinterDesignDay
12,190022.74033697399
652,133022.74033697399
717,0.0
756,112256.89889370556
2,1, 1,21, 0, 2,11.00,12.00,WinterDesignDay
12,190022.74033697399
652,133022.74033697399
717,0.0
756,112256.89889370556
2,1, 1,21, 0, 2,12.00,13.00,WinterDesignDay
12,190022.74033697399
652,133022.74033697399
717,0.0
756,112256.89889370556
2,1, 1,21, 0, 2,13.00,14.00,WinterDesignDay
12,190022.74033697399
652,133022.74033697399
717,0.0
756,112256.89889370556
2,1, 1,21, 0, 2,14.00,15.00,WinterDesignDay
12,190022.74033697399
652,133022.74033697399
717,0.0
756,112256.89889370556
2,1, 1,21, 0, 2,15.00,16.00,WinterDesignDay
12,190022.74033697399
652,133022.74033697399
717,0.0
756,112256.89889370556
2,1, 1,21, 0, 2,16.00,17.00,WinterDesignDay
12,190022.74033697399
652,133022.74033697399
717,0.0
756,112256.89889370556
2,1, 1,21, 0, 2,17.00,18.00,WinterDesignDay
12,190022.74033697399
652,133022.74033697399
717,0.0
756,112256.89889370556
2,1, 1,21, 0, 2,18.00,19.00,WinterDesignDay
12,190022.74033697399
652,133022.74033697399
717,0.0
756,112256.89889370556
2,1, 1,21, 0, 2,19.00,20.00,WinterDesignDay
12,190022.74033697399
652,133022.74033697399
717,0.0
756,112256.89889370556
2,1, 1,21, 0, 2,20.00,21.00,WinterDesignDay
12,190022.74033697399
652,133022.74033697399
717,0.0
756,112256.89889370556
2,1, 1,21, 0, 2,21.00,22.00,WinterDesignDay
12,190022.74033697399
652,133022.74033697399
717,0.0
756,112256.89889370556
2,1, 1,21, 0, 2,22.00,23.00,WinterDesignDay
12,190022.74033697399
652,133022.74033697399
717,0.0
756,112256.89889370556
2,1, 1,21, 0, 2,23.00,24.00,WinterDesignDay
12,190022.74033697399
652,133022.74033697399
717,0.0
756,112256.89889370556
2,1, 1,21, 0, 2,24.00,25.00,WinterDesignDay
12,190022.74033697399
652,133022.74033697399
717,0.0
756,112256.89889370556
2,1, 1,21, 0, 2,25.00,26.00,WinterDesignDay
12,190022.74033697399
652,133022.74033697399
717,0.0
756,112256.89889370556
2,1, 1,21, 0, 2,26.00,27.00,WinterDesignDay
12,190022.74033697399
652,133022.74033697399
717,0.0
756,112256.89889370556
2,1, 1,21, 0, 2,27.00,28.00,WinterDesignDay
12,190022.74033697399
652,133022.74033697399
717,0.0
756,112256.89889370556
2,1, 1,21, 0, 2,28.00,29.00,WinterDesignDay
12,190022.74033697399
652,133022.74033697399
717,0.0
756,112256.89889370556
2,1, 1,21, 0, 2,29.00,30.00,WinterDesignDay
12,190022.74033697399
652,133022.74033697399
717,0.0
756,112256.89889370556
2,1, 1,21, 0, 2,30.00,31.00,WinterDesignDay
12,190022.74033697399
652,133022.74033697399
717,0.0
756,112256.89889370556
2,1, 1,21, 0, 2,31.00,32.00,WinterDesignDay
12,190022.74033697399
652,133022.74033697399
717,0.0
756,112256.89889370556
2,1, 1,21, 0, 2,32.00,33.00,WinterDesignDay
12,190022.74033697399
652,133022.74033697399
717,0.0
756,112256.89889370556
2,1, 1,21, 0, 2,33.00,34.00,WinterDesignDay
12,190022.74033697399
652,133022.74033697399
717,0.0
756,112256.89889370556
2,1, 1,21, 0, 2,34.00,35.00,WinterDesignDay
12,190022.74033697399
652,133022.74033697399
717,0.0
756,112256.89889370556
2,1, 1,21, 0, 2,35.00,36.00,WinterDesignDay
12,190022.74033697399
652,133022.74033697399
717,0.0
756,112256.89889370556
2,1, 1,21, 0, 2,36.00,37.00,WinterDesignDay
12,190022.74033697399
652,133022.74033697399
717,0.0
756,112256.89889370556
2,1, 1,21, 0, 2,37.00,38.00,WinterDesignDay
12,190022.74033697399
652,133022.74033697399
717,0.0
756,112256.89889370556
2,1, 1,21, 0, 2,38.00,39.00,WinterDesignDay
12,190022.74033697399
652,133022.74033697399
717,0.0
756,112256.89889370556
2,1, 1,21, 0, 2,39.00,40.00,WinterDesignDay
12,190022.74033697399
652,133022.74033697399
717,0.0
756,112256.89889370556
2,1, 1,21, 0, 2,40.00,41.00,WinterDesignDay
12,190022.74033697399
652,133022.74033697399
717,0.0
756,112256.89889370556
2,1, 1,21, 0, 2,41.00,42.00,WinterDesignDay
12,190022.74033697399
652,133022.74033697399
717,0.0
756,112256.89889370556
2,1, 1,21, 0, 2,42.00,43.00,WinterDesignDay
12,190022.74033697399
652,133022.74033697399
717,0.0
756,112256.89889370556
2,1, 1,21, 0, 2,43.00,44.00,WinterDesignDay
12,190022.74033697399
652,133022.74033697399
717,0.0
756,112256.89889370556
2,1, 1,21, 0, 2,44.00,45.00,WinterDesignDay
12,190022.74033697399
652,133022.74033697399
717,0.0
756,112256.89889370556
2,1, 1,21, 0, 2,45.00,46.00,WinterDesignDay
12,190022.74033697399
652,133022.74033697399
717,0.0
756,112256.89889370556
2,1, 1,21, 0, 2,46.00,47.00,WinterDesignDay
12,190022.74033697399
652,133022.74033697399
717,0.0
756,112256.89889370556
2,1, 1,21, 0, 2,47.00,48.00,WinterDesignDay
12,190022.74033697399
652,133022.74033697399
717,0.0
756,112256.89889370556
2,1, 1,21, 0, 2,48.00,49.00,WinterDesignDay
12,190022.74033697399
652,133022.74033697399
717,0.0
756,112256.89889370556
2,1, 1,21, 0, 2,49.00,50.00,WinterDesignDay
12,190022.74033697399
652,133022.74033697399
717,0.0
756,112256.89889370556
2,1, 1,21, 0, 2,50.00,51.00,WinterDesignDay
12,190022.74033697399
652,133022.74033697399
717,0.0
756,112256.89889370556
2,1, 1,21, 0, 2,51.00,52.00,WinterDesignDay
12,190022.74033697399
652,133022.74033697399
717,0.0
756,112256.89889370556
2,1, 1,21, 0, 2,52.00,53.00,WinterDesignDay
12,190022.74033697399
652,133022.74033697399
717,0.0
756,112256.89889370556
2,1, 1,21, 0, 2,53.00,54.00,WinterDesignDay
12,190022.74033697399
652,133022.74033697399
717,0.0
756,112256.89889370556
2,1, 1,21, 0, 2,54.00,55.00,WinterDesignDay
12,190022.74033697399
652,133022.74033697399
717,0.0
756,112256.89889370556
2,1, 1,21, 0, 2,55.00,56.00,WinterDesignDay
12,190022.74033697399
652,133022.74033697399
717,0.0
756,112256.89889370556
2,1, 1,21, 0, 2,56.00,57.00,WinterDesignDay
12,190022.74033697399
652,133022.74033697399
717,0.0
756,112256.89889370556
2,1, 1,21, 0, 2,57.00,58.00,WinterDesignDay
12,190022.74033697399
652,133022.74033697399
717,0.0
756,112256.89889370556
2,1, 1,21, 0, 2,58.00,59.00,WinterDesignDay
12,190022.74033697399
652,133022.74033697399
717,0.0
756,112256.89889370556
2,1, 1,21, 0, 2,59.00,60.00,WinterDesignDay
12,190022.74033697399
652,133022.74033697399
717,0.0
756,112256.89889370556
2,1, 1,21, 0, 3, 0.00, 1.00,WinterDesignDay
12,190022.74033697399
652,133022.74033697399
717,0.0
756,112256.89889370556
2,1, 1,21, 0, 3, 1.00, 2.00,WinterDesignDay
12,190022.74033697399
652,133022.74033697399
717,0.0
756,112256.89889370556
2,1, 1,21, 0, 3, 2.00, 3.00,WinterDesignDay
12,190022.74033697399
652,133022.74033697399
717,0.0
756,112256.89889370556
2,1, 1,21, 0, 3, 3.00, 4.00,WinterDesignDay
12,190022.74033697399
652,133022.74033697399
717,0.0
756,112256.89889370556
2,1, 1,21, 0, 3, 4.00, 5.00,WinterDesignDay
12,190022.74033697399
652,133022.74033697399
717,0.0
756,112256.89889370556
2,1, 1,21, 0, 3, 5.00, 6.00,WinterDesignDay
12,190022.74033697399
652,133022.74033697399
717,0.0
756,112256.89889370556
2,1, 1,21, 0, 3, 6.00, 7.00,WinterDesignDay
12,190022.74033697399
652,133022.74033697399
717,0.0
756,112256.89889370556
2,1, 1,21, 0, 3, 7.00, 8.00,WinterDesignDay
12,190022.74033697399
652,133022.74033697399
717,0.0
756,112256.89889370556
2,1, 1,21, 0, 3, 8.00, 9.00,WinterDesignDay
12,190022.74033697399
652,133022.74033697399
717,0.0
756,112256.89889370556
2,1, 1,21, 0, 3, 9.00,10.00,WinterDesignDay
12,190022.74033697399
652,133022.74033697399
717,0.0
756,112256.89889370556
2,1, 1,21, 0, 3,10.00,11.00,WinterDesignDay
12,190022.74033697399
652,133022.74033697399
717,0.0
756,112256.89889370556
2,1, 1,21, 0, 3,11.00,12.00,WinterDesignDay
12,190022.74033697399
652,133022.74033697399
717,0.0
756,112256.89889370556
2,1, 1,21, 0, 3,12.00,13.00,WinterDesignDay
12,190022.74033697399
652,133022.74033697399
717,0.0
756,112256.89889370556
2,1, 1,21, 0, 3,13.00,14.00,WinterDesignDay
12,190022.74033697399
652,133022.74033697399
717,0.0
756,112256.89889370556
2,1, 1,21, 0, 3,14.00,15.00,WinterDesignDay
12,190022.74033697399
652,133022.74033697399
717,0.0
756,112256.89889370556
2,1, 1,21, 0, 3,15.00,16.00,WinterDesignDay
12,190022.74033697399
652,133022.74033697399
717,0.0
756,112256.89889370556
2,1, 1,21, 0, 3,16.00,17.00,WinterDesignDay
12,190022.74033697399
652,133022.74033697399
717,0.0
756,112256.89889370556
2,1, 1,21, 0, 3,17.00,18.00,WinterDesignDay
12,190022.74033697399
652,133022.74033697399
717,0.0
756,112256.89889370556
2,1, 1,21, 0, 3,18.00,19.00,WinterDesignDay
12,190022.74033697399
652,133022.74033697399
717,0.0
756,112256.89889370556
2,1, 1,21, 0, 3,19.00,20.00,WinterDesignDay
12,190022.74033697399
652,133022.74033697399
717,0.0
756,112256.89889370556
2,1, 1,21, 0, 3,20.00,21.00,WinterDesignDay
12,190022.74033697399
652,133022.74033697399
717,0.0
756,112256.89889370556
2,1, 1,21, 0, 3,21.00,22.00,WinterDesignDay
12,190022.74033697399
652,133022.74033697399
717,0.0
756,112256.89889370556
2,1, 1,21, 0, 3,22.00,23.00,WinterDesignDay
12,190022.74033697399
652,133022.74033697399
717,0.0
756,112256.89889370556
2,1, 1,21, 0, 3,23.00,24.00,WinterDesignDay
12,190022.74033697399
652,133022.74033697399
717,0.0
756,112256.89889370556
2,1, 1,21, 0, 3,24.00,25.00,WinterDesignDay
12,190022.74033697399
652,133022.74033697399
717,0.0
756,112256.89889370556
2,1, 1,21, 0, 3,25.00,26.00,WinterDesignDay
12,190022.74033697399
652,133022.74033697399
717,0.0
756,112256.89889370556
2,1, 1,21, 0, 3,26.00,27.00,WinterDesignDay
12,190022.74033697399
652,133022.74033697399
717,0.0
756,112256.89889370556
2,1, 1,21, 0, 3,27.00,28.00,WinterDesignDay
12,190022.74033697399
652,133022.74033697399
717,0.0
756,112256.89889370556
2,1, 1,21, 0, 3,28.00,29.00,WinterDesignDay
12,190022.74033697399
652,133022.74033697399
717,0.0
756,112256.89889370556
2,1, 1,21, 0, 3,29.00,30.00,WinterDesignDay
12,190022.74033697399
652,133022.74033697399
717,0.0
756,112256.89889370556
2,1, 1,21, 0, 3,30.00,31.00,WinterDesignDay
12,190022.74033697399
652,133022.74033697399
717,0.0
756,112256.89889370556
2,1, 1,21, 0, 3,31.00,32.00,WinterDesignDay
12,190022.74033697399
652,133022.74033697399
717,0.0
756,112256.89889370556
2,1, 1,21, 0, 3,32.00,33.00,WinterDesignDay
12,190022.74033697399
652,133022.74033697399
717,0.0
756,112256.89889370556
2,1, 1,21, 0, 3,33.00,34.00,WinterDesignDay
12,190022.74033697399
652,133022.74033697399
717,0.0
756,112256.89889370556
2,1, 1,21, 0, 3,34.00,35.00,WinterDesignDay
12,190022.74033697399
652,133022.74033697399
717,0.0
756,112256.89889370556
2,1, 1,21, 0, 3,35.00,36.00,WinterDesignDay
12,190022.74033697399
652,133022.74033697399
717,0.0
756,112256.89889370556
2,1, 1,21, 0, 3,36.00,37.00,WinterDesignDay
12,190022.74033697399
652,133022.74033697399
717,0.0
756,112256.89889370556
2,1, 1,21, 0, 3,37.00,38.00,WinterDesignDay
12,190022.74033697399
652,133022.74033697399
717,0.0
756,112256.89889370556
2,1, 1,21, 0, 3,38.00,39.00,WinterDesignDay
12,190022.74033697399
652,133022.74033697399
717,0.0
756,112256.89889370556
2,1, 1,21, 0, 3,39.00,40.00,WinterDesignDay
12,190022.74033697399
652,133022.74033697399
717,0.0
756,112256.89889370556
2,1, 1,21, 0, 3,40.00,41.00,WinterDesignDay
12,190022.74033697399
652,133022.74033697399
717,0.0
756,112256.89889370556
2,1, 1,21, 0, 3,41.00,42.00,WinterDesignDay
12,190022.74033697399
652,133022.74033697399
717,0.0
756,112256.89889370556
2,1, 1,21, 0, 3,42.00,43.00,WinterDesignDay
12,190022.74033697399
652,133022.74033697399
717,0.0
756,112256.89889370556
2,1, 1,21, 0, 3,43.00,44.00,WinterDesignDay
12,190022.74033697399
652,133022.74033697399
717,0.0
756,112256.89889370556
2,1, 1,21, 0, 3,44.00,45.00,WinterDesignDay
12,190022.74033697399
652,133022.74033697399
717,0.0
756,112256.89889370556
2,1, 1,21, 0, 3,45.00,46.00,WinterDesignDay
12,190022.74033697399
652,133022.74033697399
717,0.0
756,112256.89889370556
2,1, 1,21, 0, 3,46.00,47.00,WinterDesignDay
12,190022.74033697399
652,133022.74033697399
717,0.0
756,112256.89889370556
2,1, 1,21, 0, 3,47.00,48.00,WinterDesignDay
12,190022.74033697399
652,133022.74033697399
717,0.0
756,112256.89889370556
2,1, 1,21, 0, 3,48.00,49.00,WinterDesignDay
12,190022.74033697399
652,133022.74033697399
717,0.0
756,112256.89889370556
2,1, 1,21, 0, 3,49.00,50.00,WinterDesignDay
12,190022.74033697399
652,133022.74033697399
717,0.0
756,112256.89889370556
2,1, 1,21, 0, 3,50.00,51.00,WinterDesignDay
12,190022.74033697399
652,133022.74033697399
717,0.0
756,112256.89889370556
2,1, 1,21, 0, 3,51.00,52.00,WinterDesignDay
12,190022.74033697399
652,133022.74033697399
717,0.0
756,112256.89889370556
2,1, 1,21, 0, 3,52.00,53.00,WinterDesignDay
12,190022.74033697399
652,133022.74033697399
717,0.0
756,112256.89889370556
2,1, 1,21, 0, 3,53.00,54.00,WinterDesignDay
12,190022.74033697399
652,133022.74033697399
717,0.0
756,112256.89889370556
2,1, 1,21, 0, 3,54.00,55.00,WinterDesignDay
12,190022.74033697399
652,133022.74033697399
717,0.0
756,112256.89889370556
2,1, 1,21, 0, 3,55.00,56.00,WinterDesignDay
12,190022.74033697399
652,133022.74033697399
717,0.0
756,112256.89889370556
2,1, 1,21, 0, 3,56.00,57.00,WinterDesignDay
12,190022.74033697399
652,133022.74033697399
717,0.0
756,112256.89889370556
2,1, 1,21, 0, 3,57.00,58.00,WinterDesignDay
12,190022.74033697399
652,133022.74033697399
717,0.0
756,112256.89889370556
2,1, 1,21, 0, 3,58.00,59.00,WinterDesignDay
12,190022.74033697399
652,133022.74033697399
717,0.0
756,112256.89889370556
2,1, 1,21, 0, 3,59.00,60.00,WinterDesignDay
12,190022.74033697399
652,133022.74033697399
717,0.0
756,112256.89889370556
2,1, 1,21, 0, 4, 0.00, 1.00,WinterDesignDay
12,190022.74033697399
652,133022.74033697399
717,0.0
756,112256.89889370556
2,1, 1,21, 0, 4, 1.00, 2.00,WinterDesignDay
12,190022.74033697399
652,133022.74033697399
717,0.0
756,112256.89889370556
2,1, 1,21, 0, 4, 2.00, 3.00,WinterDesignDay
12,190022.74033697399
652,133022.74033697399
717,0.0
756,112256.89889370556
2,1, 1,21, 0, 4, 3.00, 4.00,WinterDesignDay
12,190022.74033697399
652,133022.74033697399
717,0.0
756,112256.89889370556
2,1, 1,21, 0, 4, 4.00, 5.00,WinterDesignDay
12,190022.74033697399
652,133022.74033697399
717,0.0
756,112256.89889370556
2,1, 1,21, 0, 4, 5.00, 6.00,WinterDesignDay
12,190022.74033697399
652,133022.74033697399
717,0.0
756,112256.89889370556
2,1, 1,21, 0, 4, 6.00, 7.00,WinterDesignDay
12,190022.74033697399
652,133022.74033697399
717,0.0
756,112256.89889370556
2,1, 1,21, 0, 4, 7.00, 8.00,WinterDesignDay
12,190022.74033697399
652,133022.74033697399
717,0.0
756,112256.89889370556
2,1, 1,21, 0, 4, 8.00, 9.00,WinterDesignDay
12,190022.74033697399
652,133022.74033697399
717,0.0
756,112256.89889370556
2,1, 1,21, 0, 4, 9.00,10.00,WinterDesignDay
12,190022.74033697399
652,133022.74033697399
717,0.0
756,112256.89889370556
2,1, 1,21, 0, 4,10.00,11.00,WinterDesignDay
12,190022.74033697399
652,133022.74033697399
717,0.0
756,112256.89889370556
2,1, 1,21, 0, 4,11.00,12.00,WinterDesignDay
12,190022.74033697399
652,133022.74033697399
717,0.0
756,112256.89889370556
2,1, 1,21, 0, 4,12.00,13.00,WinterDesignDay
12,190022.74033697399
652,133022.74033697399
717,0.0
756,112256.89889370556
2,1, 1,21, 0, 4,13.00,14.00,WinterDesignDay
12,190022.74033697399
652,133022.74033697399
717,0.0
756,112256.89889370556
2,1, 1,21, 0, 4,14.00,15.00,WinterDesignDay
12,190022.74033697399
652,133022.74033697399
717,0.0
756,112256.89889370556
2,1, 1,21, 0, 4,15.00,16.00,WinterDesignDay
12,190022.74033697399
652,133022.74033697399
717,0.0
756,112256.89889370556
2,1, 1,21, 0, 4,16.00,17.00,WinterDesignDay
12,190022.74033697399
652,133022.74033697399
717,0.0
756,112256.89889370556
2,1, 1,21, 0, 4,17.00,18.00,WinterDesignDay
12,190022.74033697399
652,133022.74033697399
717,0.0
756,112256.89889370556
2,1, 1,21, 0, 4,18.00,19.00,WinterDesignDay
12,190022.74033697399
652,133022.74033697399
717,0.0
756,112256.89889370556
2,1, 1,21, 0, 4,19.00,20.00,WinterDesignDay
12,190022.74033697399
652,133022.74033697399
717,0.0
756,112256.89889370556
2,1, 1,21, 0, 4,20.00,21.00,WinterDesignDay
12,190022.74033697399
652,133022.74033697399
717,0.0
756,112256.89889370556
2,1, 1,21, 0, 4,21.00,22.00,WinterDesignDay
12,190022.74033697399
652,133022.74033697399
717,0.0
756,112256.89889370556
2,1, 1,21, 0, 4,22.00,23.00,WinterDesignDay
12,190022.74033697399
652,133022.74033697399
717,0.0
756,112256.89889370556
2,1, 1,21, 0, 4,23.00,24.00,WinterDesignDay
12,190022.74033697399
652,133022.74033697399
717,0.0
756,112256.89889370556
2,1, 1,21, 0, 4,24.00,25.00,WinterDesignDay
12,190022.74033697399
652,133022.74033697399
717,0.0
756,112256.89889370556
2,1, 1,21, 0, 4,25.00,26.00,WinterDesignDay
12,190022.74033697399
652,133022.74033697399
717,0.0
756,112256.89889370556
2,1, 1,21, 0, 4,26.00,27.00,WinterDesignDay
12,190022.74033697399
652,133022.74033697399
717,0.0
756,112256.89889370556
2,1, 1,21, 0, 4,27.00,28.00,WinterDesignDay
12,190022.74033697399
652,133022.74033697399
717,0.0
756,112256.89889370556
2,1, 1,21, 0, 4,28.00,29.00,WinterDesignDay
12,190022.74033697399
652,133022.74033697399
717,0.0
756,112256.89889370556
2,1, 1,21, 0, 4,29.00,30.00,WinterDesignDay
12,190022.74033697399
652,133022.74033697399
717,0.0
756,112256.89889370556
2,1, 1,21, 0, 4,30.00,31.00,WinterDesignDay
12,190022.74033697399
652,133022.74033697399
717,0.0
756,112256.89889370556
2,1, 1,21, 0, 4,31.00,32.00,WinterDesignDay
12,190022.74033697399
652,133022.74033697399
717,0.0
756,112256.89889370556
2,1, 1,21, 0, 4,32.00,33.00,WinterDesignDay
12,190022.74033697399
652,133022.74033697399
717,0.0
756,112256.89889370556
2,1, 1,21, 0, 4,33.00,34.00,WinterDesignDay
12,190022.74033697399
652,133022.74033697399
717,0.0
756,112256.89889370556
2,1, 1,21, 0, 4,34.00,35.00,WinterDesignDay
12,190022.74033697399
652,133022.74033697399
717,0.0
756,112256.89889370556
2,1, 1,21, 0, 4,35.00,36.00,WinterDesignDay
12,190022.74033697399
652,133022.74033697399
717,0.0
756,112256.89889370556
2,1, 1,21, 0, 4,36.00,37.00,WinterDesignDay
12,190022.74033697399
652,133022.74033697399
717,0.0
756,112256.89889370556
2,1, 1,21, 0, 4,37.00,38.00,WinterDesignDay
12,190022.74033697399
652,133022.74033697399
717,0.0
756,112256.89889370556
2,1, 1,21, 0, 4,38.00,39.00,WinterDesignDay
12,190022.74033697399
652,133022.74033697399
717,0.0
756,112256.89889370556
2,1, 1,21, 0, 4,39.00,40.00,WinterDesignDay
12,190022.74033697399
652,133022.74033697399
717,0.0
756,112256.89889370556
2,1, 1,21, 0, 4,40.00,41.00,WinterDesignDay
12,190022.74033697399
652,133022.74033697399
717,0.0
756,112256.89889370556
2,1, 1,21, 0, 4,41.00,42.00,WinterDesignDay
12,190022.74033697399
652,133022.74033697399
717,0.0
756,112256.89889370556
2,1, 1,21, 0, 4,42.00,43.00,WinterDesignDay
12,190022.74033697399
652,133022.74033697399
717,0.0
756,112256.89889370556
2,1, 1,21, 0, 4,43.00,44.00,WinterDesignDay
12,190022.74033697399
652,133022.74033697399
717,0.0
756,112256.89889370556
2,1, 1,21, 0, 4,44.00,45.00,WinterDesignDay
12,190022.74033697399
652,133022.74033697399
717,0.0
756,112256.89889370556
2,1, 1,21, 0, 4,45.00,46.00,WinterDesignDay
12,190022.74033697399
652,133022.74033697399
717,0.0
756,112256.89889370556
2,1, 1,21, 0, 4,46.00,47.00,WinterDesignDay
12,190022.74033697399
652,133022.74033697399
717,0.0
756,112256.89889370556
2,1, 1,21, 0, 4,47.00,48.00,WinterDesignDay
12,190022.74033697399
652,133022.74033697399
717,0.0
756,112256.89889370556
2,1, 1,21, 0, 4,48.00,49.00,WinterDesignDay
12,190022.74033697399
652,133022.74033697399
717,0.0
756,112256.89889370556
2,1, 1,21, 0, 4,49.00,50.00,WinterDesignDay
12,190022.74033697399
652,133022.74033697399
717,0.0
756,112256.89889370556
2,1, 1,21, 0, 4,50.00,51.00,WinterDesignDay
12,190022.74033697399
652,133022.74033697399
717,0.0
756,112256.89889370556
2,1, 1,21, 0, 4,51.00,52.00,WinterDesignDay
12,190022.74033697399
652,133022.74033697399
717,0.0
756,112256.89889370556
2,1, 1,21, 0, 4,52.00,53.00,WinterDesignDay
12,190022.74033697399
652,133022.74033697399
717,0.0
756,112256.89889370556
2,1, 1,21, 0, 4,53.00,54.00,WinterDesignDay
12,190022.74033697399
652,133022.74033697399
717,0.0
756,112256.89889370556
2,1, 1,21, 0, 4,54.00,55.00,WinterDesignDay
12,190022.74033697399
652,133022.74033697399
717,0.0
756,112256.89889370556
2,1, 1,21, 0, 4,55.00,56.00,WinterDesignDay
12,190022.74033697399
652,133022.74033697399
717,0.0
756,112256.89889370556
2,1, 1,21, 0, 4,56.00,57.00,WinterDesignDay
12,190022.74033697399
652,133022.74033697399
717,0.0
756,112256.89889370556
2,1, 1,21, 0, 4,57.00,58.00,WinterDesignDay
12,190022.74033697399
652,133022.74033697399
717,0.0
756,112256.89889370556
2,1, 1,21, 0, 4,58.00,59.00,WinterDesignDay
12,190022.74033697399
652,133022.74033697399
717,0.0
756,112256.89889370556
2,1, 1,21, 0, 4,59.00,60.00,WinterDesignDay
12,190022.74033697399
652,133022.74033697399
717,0.0
756,112256.89889370556
2,1, 1,21, 0, 5, 0.00, 1.00,WinterDesignDay
12,190022.74033697399
652,133022.74033697399
717,0.0
756,112256.89889370556
2,1, 1,21, 0, 5, 1.00, 2.00,WinterDesignDay
12,190022.74033697399
652,133022.74033697399
717,0.0
756,112256.89889370556
2,1, 1,21, 0, 5, 2.00, 3.00,WinterDesignDay
12,190022.74033697399